
                                 *****************
                                 * O   R   C   A *
                                 *****************

           --- An Ab Initio, DFT and Semiempirical electronic structure package ---

                  #######################################################
                  #                        -***-                        #
                  #          Department of theory and spectroscopy      #
                  #               Directorship: Frank Neese             #
                  #        Max Planck Institute fuer Kohlenforschung    #
                  #                Kaiser Wilhelm Platz 1               #
                  #                 D-45470 Muelheim/Ruhr               #
                  #                      Germany                        #
                  #                                                     #
                  #                  All rights reserved                #
                  #                        -***-                        #
                  #######################################################


                         Program Version 4.1.0  - RELEASE  -


 With contributions from (in alphabetic order):
   Daniel Aravena         : Magnetic Properties
   Michael Atanasov       : Ab Initio Ligand Field Theory
   Alexander A. Auer      : GIAO ZORA
   Ute Becker             : Parallelization
   Giovanni Bistoni       : ED, Open-shell LED
   Martin Brehm           : Molecular dynamics
   Dmytro Bykov           : SCF Hessian
   Vijay G. Chilkuri      : MRCI spin determinant printing
   Dipayan Datta          : RHF DLPNO-CCSD density
   Achintya Kumar Dutta   : EOM-CC, STEOM-CC
   Dmitry Ganyushin       : Spin-Orbit,Spin-Spin,Magnetic field MRCI
   Miquel Garcia          : C-PCM Hessian
   Yang Guo               : DLPNO-NEVPT2, CIM, IAO-localization
   Andreas Hansen         : Spin unrestricted coupled pair/coupled cluster methods
   Benjamin Helmich-Paris : CASSCF linear response (MC-RPA)
   Lee Huntington         : MR-EOM, pCC
   Robert Izsak           : Overlap fitted RIJCOSX, COSX-SCS-MP3, EOM
   Christian Kollmar      : KDIIS, OOCD, Brueckner-CCSD(T), CCSD density
   Simone Kossmann        : Meta GGA functionals, TD-DFT gradient, OOMP2, MP2 Hessian
   Martin Krupicka        : AUTO-CI
   Lucas Lang             : DCDCAS
   Dagmar Lenk            : GEPOL surface, SMD
   Dimitrios Liakos       : Extrapolation schemes; parallel MDCI
   Dimitrios Manganas     : ROCIS; embedding schemes
   Dimitrios Pantazis     : SARC Basis sets
   Taras Petrenko         : DFT Hessian,TD-DFT gradient, ASA, ECA, R-Raman, ABS, FL, XAS/XES, NRVS
   Peter Pinski           : DLPNO-MP2, DLPNO-MP2 Gradient
   Christoph Reimann      : Effective Core Potentials
   Marius Retegan         : Local ZFS, SOC
   Christoph Riplinger    : Optimizer, TS searches, QM/MM, DLPNO-CCSD(T), (RO)-DLPNO pert. Triples
   Tobias Risthaus        : Range-separated hybrids, TD-DFT gradient, RPA, STAB
   Michael Roemelt        : Restricted open shell CIS
   Masaaki Saitow         : Open-shell DLPNO
   Barbara Sandhoefer     : DKH picture change effects
   Avijit Sen             : IP-ROCIS
   Kantharuban Sivalingam : CASSCF convergence, NEVPT2, FIC-MRCI
   Bernardo de Souza      : ESD, SOC TD-DFT
   Georgi Stoychev        : AutoAux, RI-MP2 NMR
   Willem Van den Heuvel  : Paramagnetic NMR
   Boris Wezisla          : Elementary symmetry handling
   Frank Wennmohs         : Technical directorship


 We gratefully acknowledge several colleagues who have allowed us to
 interface, adapt or use parts of their codes:
   Stefan Grimme, W. Hujo, H. Kruse,             : VdW corrections, initial TS optimization,
                  C. Bannwarth                     DFT functionals, gCP, sTDA/sTD-DF
   Ed Valeev                                     : LibInt (2-el integral package), F12 methods
   Garnet Chan, S. Sharma, J. Yang, R. Olivares  : DMRG
   Ulf Ekstrom                                   : XCFun DFT Library
   Mihaly Kallay                                 : mrcc  (arbitrary order and MRCC methods)
   Andreas Klamt, Michael Diedenhofen            : otool_cosmo (COSMO solvation model)
   Jiri Pittner, Ondrej Demel                    : Mk-CCSD
   Frank Weinhold                                : gennbo (NPA and NBO analysis)
   Christopher J. Cramer and Donald G. Truhlar   : smd solvation model
   Lars Goerigk                                  : TD-DFT with DH, B97 family of functionals
   V. Asgeirsson, H. Jonsson                     : NEB implementation
   FAccTs GmbH                                   : IRC, NEB, NEB-TS, Multilevel


 Your calculation uses the libint2 library for the computation of 2-el integrals
 For citations please refer to: http://libint.valeyev.net

 This ORCA versions uses:
   CBLAS   interface :  Fast vector & matrix operations
   LAPACKE interface :  Fast linear algebra routines
   SCALAPACK package :  Parallel linear algebra routines


----- Orbital basis set information -----
Your calculation utilizes the basis: def2-TZVP
   F. Weigend and R. Ahlrichs, Phys. Chem. Chem. Phys. 7, 3297 (2005).

----- AuxJ basis set information -----
Your calculation utilizes the auxiliary basis: def2/J
   F. Weigend, Phys. Chem. Chem. Phys. 8, 1057 (2006).

================================================================================
                                        WARNINGS
                       Please study these warnings very carefully!
================================================================================


INFO   : the flag for use of LIBINT has been found!

================================================================================
                                       INPUT FILE
================================================================================
NAME = orca.inp
|  1> ! engrad  BLYP  def2-TZVP 
|  2> %pal nprocs 1 end 
|  3> *xyz -1 1 
|  4> C   -0.806718 0.0475439 1.5251484
|  5> S   0.3116624 0.2691858 0.0786324
|  6> H   -0.2255019 -0.222059 2.4060774
|  7> H   -1.4979938 -0.7535269 1.2757967
|  8> H   -1.3445395 0.9720244 1.7264612
|  9> C   -2.12058 -0.473563 -2.16443
| 10> S   -0.909224 -1.55335 -1.31694
| 11> H   -2.87184 -0.0888163 -1.47067
| 12> H   -2.63462 -1.0432 -2.94303
| 13> H   -1.61839 0.375892 -2.6309
| 14> C   3.12293 1.42501 2.43838
| 15> S   1.87995 2.48535 1.61543
| 16> H   3.87616 2.05726 2.91514
| 17> H   2.67047 0.794064 3.20724
| 18> H   3.61916 0.779927 1.71184
| 19> *
| 20> 
| 21>                          ****END OF INPUT****
================================================================================

                     *******************************
                     * Energy+Gradient Calculation *
                     *******************************

---------------------------------
CARTESIAN COORDINATES (ANGSTROEM)
---------------------------------
  C     -0.806718    0.047544    1.525148
  S      0.311662    0.269186    0.078632
  H     -0.225502   -0.222059    2.406077
  H     -1.497994   -0.753527    1.275797
  H     -1.344539    0.972024    1.726461
  C     -2.120580   -0.473563   -2.164430
  S     -0.909224   -1.553350   -1.316940
  H     -2.871840   -0.088816   -1.470670
  H     -2.634620   -1.043200   -2.943030
  H     -1.618390    0.375892   -2.630900
  C      3.122930    1.425010    2.438380
  S      1.879950    2.485350    1.615430
  H      3.876160    2.057260    2.915140
  H      2.670470    0.794064    3.207240
  H      3.619160    0.779927    1.711840

----------------------------
CARTESIAN COORDINATES (A.U.)
----------------------------
  NO LB      ZA    FRAG     MASS         X           Y           Z
   0 C     6.0000    0    12.011   -1.524476    0.089845    2.882113
   1 S    16.0000    0    32.060    0.588957    0.508687    0.148594
   2 H     1.0000    0     1.008   -0.426137   -0.419631    4.546827
   3 H     1.0000    0     1.008   -2.830798   -1.423959    2.410906
   4 H     1.0000    0     1.008   -2.540811    1.836860    3.262539
   5 C     6.0000    0    12.011   -4.007315   -0.894904   -4.090180
   6 S    16.0000    0    32.060   -1.718184   -2.935406   -2.488656
   7 H     1.0000    0     1.008   -5.426991   -0.167838   -2.779164
   8 H     1.0000    0     1.008   -4.978710   -1.971362   -5.561521
   9 H     1.0000    0     1.008   -3.058314    0.710333   -4.971680
  10 C     6.0000    0    12.011    5.901482    2.692879    4.607870
  11 S    16.0000    0    32.060    3.552591    4.696631    3.052720
  12 H     1.0000    0     1.008    7.324881    3.887658    5.508816
  13 H     1.0000    0     1.008    5.046457    1.500563    6.060805
  14 H     1.0000    0     1.008    6.839221    1.473848    3.234909

--------------------------------
INTERNAL COORDINATES (ANGSTROEM)
--------------------------------
 C      0   0   0     0.000000000000     0.00000000     0.00000000
 S      1   0   0     1.841822029729     0.00000000     0.00000000
 H      1   2   0     1.089281314275   109.93407598     0.00000000
 H      1   2   3     1.087084600466   107.13702669   240.46261693
 H      1   2   3     1.088321186133   110.06724728   119.98564827
 C      2   1   3     3.390989207083    93.30282434   154.03839241
 S      6   2   1     1.830727348407    49.33575467   269.63849937
 H      6   2   1     1.092577021706    89.77312012    28.94666130
 H      6   2   1     1.093133749076   157.30588454   245.78341489
 H      6   2   1     1.091495695834    77.42132613   137.74710209
 C      3   1   2     3.731738996455   112.11894348    34.29012344
 S     11   3   1     1.829362429509    69.03871883    31.81556239
 H     11   3   1     1.092884071162   151.34634878   123.77258042
 H     11   3   1     1.092684129159    51.66080436   175.71260962
 H     11   3   1     1.090979679641    98.12818492   282.77332986

---------------------------
INTERNAL COORDINATES (A.U.)
---------------------------
 C      0   0   0     0.000000000000     0.00000000     0.00000000
 S      1   0   0     3.480539223611     0.00000000     0.00000000
 H      1   2   0     2.058443366778   109.93407598     0.00000000
 H      1   2   3     2.054292179285   107.13702669   240.46261693
 H      1   2   3     2.056628987536   110.06724728   119.98564827
 C      2   1   3     6.408040924470    93.30282434   154.03839241
 S      6   2   1     3.459573314369    49.33575467   269.63849937
 H      6   2   1     2.064671351240    89.77312012    28.94666130
 H      6   2   1     2.065723413500   157.30588454   245.78341489
 H      6   2   1     2.062627941481    77.42132613   137.74710209
 C      3   1   2     7.051964706575   112.11894348    34.29012344
 S     11   3   1     3.456993991457    69.03871883    31.81556239
 H     11   3   1     2.065251590621   151.34634878   123.77258042
 H     11   3   1     2.064873754993    51.66080436   175.71260962
 H     11   3   1     2.061652812194    98.12818492   282.77332986

---------------------
BASIS SET INFORMATION
---------------------
There are 3 groups of distinct atoms

 Group   1 Type C   : 11s6p2d1f contracted to 5s3p2d1f pattern {62111/411/11/1}
 Group   2 Type S   : 14s9p3d1f contracted to 5s5p2d1f pattern {73211/51111/21/1}
 Group   3 Type H   : 5s1p contracted to 3s1p pattern {311/1}

Atom   0C    basis set group =>   1
Atom   1S    basis set group =>   2
Atom   2H    basis set group =>   3
Atom   3H    basis set group =>   3
Atom   4H    basis set group =>   3
Atom   5C    basis set group =>   1
Atom   6S    basis set group =>   2
Atom   7H    basis set group =>   3
Atom   8H    basis set group =>   3
Atom   9H    basis set group =>   3
Atom  10C    basis set group =>   1
Atom  11S    basis set group =>   2
Atom  12H    basis set group =>   3
Atom  13H    basis set group =>   3
Atom  14H    basis set group =>   3
-------------------------------
AUXILIARY BASIS SET INFORMATION
-------------------------------
There are 3 groups of distinct atoms

 Group   1 Type C   : 12s5p4d2f1g contracted to 6s4p3d1f1g pattern {711111/2111/211/2/1}
 Group   2 Type S   : 14s5p5d2f1g contracted to 8s4p3d1f1g pattern {71111111/2111/311/2/1}
 Group   3 Type H   : 5s2p1d contracted to 3s1p1d pattern {311/2/1}

Atom   0C    basis set group =>   1
Atom   1S    basis set group =>   2
Atom   2H    basis set group =>   3
Atom   3H    basis set group =>   3
Atom   4H    basis set group =>   3
Atom   5C    basis set group =>   1
Atom   6S    basis set group =>   2
Atom   7H    basis set group =>   3
Atom   8H    basis set group =>   3
Atom   9H    basis set group =>   3
Atom  10C    basis set group =>   1
Atom  11S    basis set group =>   2
Atom  12H    basis set group =>   3
Atom  13H    basis set group =>   3
Atom  14H    basis set group =>   3
------------------------------------------------------------------------------
                           ORCA GTO INTEGRAL CALCULATION
                           -- RI-GTO INTEGRALS CHOSEN --
------------------------------------------------------------------------------

                         BASIS SET STATISTICS AND STARTUP INFO

Gaussian basis set:
 # of primitive gaussian shells          ...  195
 # of primitive gaussian functions       ...  399
 # of contracted shells                  ...  108
 # of contracted basis functions         ...  258
 Highest angular momentum                ...    3
 Maximum contraction depth               ...    7
Auxiliary gaussian basis set:
 # of primitive gaussian shells          ...  225
 # of primitive gaussian functions       ...  585
 # of contracted shells                  ...  141
 # of contracted aux-basis functions     ...  399
 Highest angular momentum                ...    4
 Maximum contraction depth               ...    7
Ratio of auxiliary to basis functions    ...  1.55
Integral package used                  ... LIBINT
 One Electron integrals                  ... done
 Ordering auxiliary basis shells         ... done
 Integral threshhold             Thresh  ...  2.500e-11
 Primitive cut-off               TCut    ...  2.500e-12
 Pre-screening matrix                    ... done
 Shell pair data                         ... 
 Ordering of the shell pairs             ... done (   0.001 sec) 4716 of 5886 pairs
 Determination of significant pairs      ... done (   0.000 sec)
 Creation of shell pair data             ... done (   0.001 sec)
 Storage of shell pair data              ... done (   0.006 sec)
 Shell pair data done in (   0.008 sec)
 Computing two index integrals           ... done
 Cholesky decomposition of the V-matrix  ... done


Timings:
 Total evaluation time                   ...   0.217 sec (  0.004 min)
 One electron matrix time                ...   0.030 sec (  0.000 min) = 13.7%
 Schwartz matrix evaluation time         ...   0.128 sec (  0.002 min) = 59.2%
 Two index repulsion integral time       ...   0.009 sec (  0.000 min) =  4.3%
 Cholesky decomposition of V             ...   0.022 sec (  0.000 min) = 10.2%
 Three index repulsion integral time     ...   0.000 sec (  0.000 min) =  0.0%

-------------------------------------------------------------------------------
                                 ORCA SCF
-------------------------------------------------------------------------------

------------
SCF SETTINGS
------------
Hamiltonian:
 Density Functional     Method          .... DFT(GTOs)
 Exchange Functional    Exchange        .... B88
   X-Alpha parameter    XAlpha          ....  0.666667
   Becke's b parameter  XBeta           ....  0.004200
 Correlation Functional Correlation     .... LYP
 Gradients option       PostSCFGGA      .... off
   Density functional embedding theory  .... OFF
   NL short-range parameter             ....  4.000000
 RI-approximation to the Coulomb term is turned on
   Number of auxiliary basis functions  .... 399


General Settings:
 Integral files         IntName         .... orca
 Hartree-Fock type      HFTyp           .... RHF
 Total Charge           Charge          ....   -1
 Multiplicity           Mult            ....    1
 Number of Electrons    NEL             ....   76
 Basis Dimension        Dim             ....  258
 Nuclear Repulsion      ENuc            ....    397.2716727912 Eh

Convergence Acceleration:
 DIIS                   CNVDIIS         .... on
   Start iteration      DIISMaxIt       ....    12
   Startup error        DIISStart       ....  0.200000
   # of expansion vecs  DIISMaxEq       ....     5
   Bias factor          DIISBfac        ....   1.050
   Max. coefficient     DIISMaxC        ....  10.000
 Newton-Raphson         CNVNR           .... off
 SOSCF                  CNVSOSCF        .... on
   Start iteration      SOSCFMaxIt      ....   150
   Startup grad/error   SOSCFStart      ....  0.003300
 Level Shifting         CNVShift        .... on
   Level shift para.    LevelShift      ....    0.2500
   Turn off err/grad.   ShiftErr        ....    0.0010
 Zerner damping         CNVZerner       .... off
 Static damping         CNVDamp         .... on
   Fraction old density DampFac         ....    0.7000
   Max. Damping (<1)    DampMax         ....    0.9800
   Min. Damping (>=0)   DampMin         ....    0.0000
   Turn off err/grad.   DampErr         ....    0.1000
 Fernandez-Rico         CNVRico         .... off

SCF Procedure:
 Maximum # iterations   MaxIter         ....   125
 SCF integral mode      SCFMode         .... Direct
   Integral package                     .... LIBINT
 Reset frequency        DirectResetFreq ....    20
 Integral Threshold     Thresh          ....  2.500e-11 Eh
 Primitive CutOff       TCut            ....  2.500e-12 Eh

Convergence Tolerance:
 Convergence Check Mode ConvCheckMode   .... Total+1el-Energy
 Convergence forced     ConvForced      .... 0
 Energy Change          TolE            ....  1.000e-08 Eh
 1-El. energy change                    ....  1.000e-05 Eh
 Orbital Gradient       TolG            ....  1.000e-05
 Orbital Rotation angle TolX            ....  1.000e-05
 DIIS Error             TolErr          ....  5.000e-07


Diagonalization of the overlap matrix:
Smallest eigenvalue                        ... 1.370e-03
Time for diagonalization                   ...    0.032 sec
Threshold for overlap eigenvalues          ... 1.000e-08
Number of eigenvalues below threshold      ... 0
Time for construction of square roots      ...    0.015 sec
Total time needed                          ...    0.047 sec

-------------------
DFT GRID GENERATION
-------------------

General Integration Accuracy     IntAcc      ...  4.340
Radial Grid Type                 RadialGrid  ... Gauss-Chebyshev
Angular Grid (max. acc.)         AngularGrid ... Lebedev-110
Angular grid pruning method      GridPruning ... 3 (G Style)
Weight generation scheme         WeightScheme... Becke
Basis function cutoff            BFCut       ...    1.0000e-11
Integration weight cutoff        WCut        ...    1.0000e-14
Grids for H and He will be reduced by one unit

# of grid points (after initial pruning)     ...  17532 (   0.0 sec)
# of grid points (after weights+screening)   ...  16687 (   0.0 sec)
nearest neighbour list constructed           ...    0.0 sec
Grid point re-assignment to atoms done       ...    0.0 sec
Grid point division into batches done        ...    0.0 sec
Reduced shell lists constructed in    0.1 sec

Total number of grid points                  ...    16687
Total number of batches                      ...      269
Average number of points per batch           ...       62
Average number of grid points per atom       ...     1112
Average number of shells per batch           ...    59.87 (55.44%)
Average number of basis functions per batch  ...   145.55 (56.41%)
Average number of large shells per batch     ...    44.50 (74.32%)
Average number of large basis fcns per batch ...   109.02 (74.90%)
Maximum spatial batch extension              ...  19.86, 21.95, 19.45 au
Average spatial batch extension              ...   4.17,  4.36,  4.12 au

Time for grid setup =    0.163 sec

------------------------------
INITIAL GUESS: MODEL POTENTIAL
------------------------------
Loading Hartree-Fock densities                     ... done
Calculating cut-offs                               ... done
Setting up the integral package                    ... done
Initializing the effective Hamiltonian             ... done
Starting the Coulomb interaction                   ... done (   0.2 sec)
Reading the grid                                   ... done
Mapping shells                                     ... done
Starting the XC term evaluation                    ... done (   0.2 sec)
  promolecular density results
     # of electrons  =     74.995492094
     EX              =    -93.018292483
     EC              =     -2.796459230
     EX+EC           =    -95.814751713
Transforming the Hamiltonian                       ... done (   0.0 sec)
Diagonalizing the Hamiltonian                      ... done (   0.0 sec)
Back transforming the eigenvectors                 ... done (   0.0 sec)
Now organizing SCF variables                       ... done
                      ------------------
                      INITIAL GUESS DONE (   0.6 sec)
                      ------------------
--------------
SCF ITERATIONS
--------------
ITER       Energy         Delta-E        Max-DP      RMS-DP      [F,P]     Damp
               ***  Starting incremental Fock matrix formation  ***
  0  -1314.0998689141   0.000000000000 0.09125851  0.00139791  0.1861787 0.7000
  1  -1314.2251866264  -0.125317712317 0.04839216  0.00116344  0.0798742 0.7000
                               ***Turning on DIIS***
  2  -1314.2639903385  -0.038803712153 0.09311045  0.00219080  0.0255294 0.0000
  3  -1314.3142018780  -0.050211539429 0.04142182  0.00076678  0.0585016 0.0000
  4  -1314.3384680310  -0.024266152986 0.03379944  0.00042983  0.0152799 0.0000
  5  -1314.3415752526  -0.003107221617 0.00816655  0.00015665  0.0050698 0.0000
                      *** Initiating the SOSCF procedure ***
                           *** Shutting down DIIS ***
                      *** Re-Reading the Fockian *** 
                      *** Removing any level shift *** 
ITER      Energy       Delta-E        Grad      Rot      Max-DP    RMS-DP
  6  -1314.34194122  -0.0003659676  0.001442  0.001442  0.003759  0.000076
               *** Restarting incremental Fock matrix formation ***
  7  -1314.34200531  -0.0000640913  0.000985  0.015824  0.005596  0.000129
  8  -1314.34191179   0.0000935197  0.004280  0.009915  0.003580  0.000078
  9  -1314.34201025  -0.0000984625  0.000430  0.003226  0.004197  0.000088
 10  -1314.34200275   0.0000075065  0.000591  0.001992  0.002264  0.000043
 11  -1314.34202090  -0.0000181506  0.000429  0.002198  0.001608  0.000034
 12  -1314.34201513   0.0000057713  0.000863  0.001538  0.001131  0.000023
 13  -1314.34202242  -0.0000072965  0.000055  0.000432  0.000376  0.000007
 14  -1314.34202221   0.0000002120  0.000094  0.000218  0.000138  0.000004
 15  -1314.34202256  -0.0000003438  0.000014  0.000084  0.000124  0.000002
 16  -1314.34202255   0.0000000103  0.000018  0.000044  0.000068  0.000001
                  ***Gradient check signals convergence***
              ***Rediagonalizing the Fockian in SOSCF/NRSCF***

               *****************************************************
               *                     SUCCESS                       *
               *           SCF CONVERGED AFTER  17 CYCLES          *
               *****************************************************

Setting up the final grid:

General Integration Accuracy     IntAcc      ...  4.670
Radial Grid Type                 RadialGrid  ... Gauss-Chebyshev
Angular Grid (max. acc.)         AngularGrid ... Lebedev-302
Angular grid pruning method      GridPruning ... 3 (G Style)
Weight generation scheme         WeightScheme... Becke
Basis function cutoff            BFCut       ...    1.0000e-11
Integration weight cutoff        WCut        ...    1.0000e-14
Grids for H and He will be reduced by one unit

# of grid points (after initial pruning)     ...  69720 (   0.0 sec)
# of grid points (after weights+screening)   ...  65771 (   0.1 sec)
nearest neighbour list constructed           ...    0.0 sec
Grid point re-assignment to atoms done       ...    0.0 sec
Grid point division into batches done        ...    0.3 sec
Reduced shell lists constructed in    0.7 sec

Total number of grid points                  ...    65771
Total number of batches                      ...     1036
Average number of points per batch           ...       63
Average number of grid points per atom       ...     4385
Average number of shells per batch           ...    54.13 (50.12%)
Average number of basis functions per batch  ...   130.74 (50.68%)
Average number of large shells per batch     ...    39.69 (73.32%)
Average number of large basis fcns per batch ...    96.55 (73.85%)
Maximum spatial batch extension              ...  18.20, 20.64, 22.41 au
Average spatial batch extension              ...   2.71,  2.81,  2.79 au

Final grid set up in    0.8 sec
Final integration                            ... done (   0.9 sec)
Change in XC energy                          ...     0.000293152
Integrated number of electrons               ...    75.999967311
Previous integrated no of electrons          ...    75.998113871

----------------
TOTAL SCF ENERGY
----------------

Total Energy       :        -1314.34172940 Eh          -35765.05672 eV

Components:
Nuclear Repulsion  :          397.27167279 Eh           10810.31180 eV
Electronic Energy  :        -1711.61340219 Eh          -46575.36852 eV
One Electron Energy:        -2614.43252629 Eh          -71142.32585 eV
Two Electron Energy:          902.81912410 Eh           24566.95733 eV

Virial components:
Potential Energy   :        -2626.05046483 Eh          -71458.46603 eV
Kinetic Energy     :         1311.70873543 Eh           35693.40931 eV
Virial Ratio       :            2.00200730


DFT components:
N(Alpha)           :       37.999983655539 electrons
N(Beta)            :       37.999983655539 electrons
N(Total)           :       75.999967311078 electrons
E(X)               :      -93.935188219862 Eh       
E(C)               :       -2.838872669644 Eh       
E(XC)              :      -96.774060889506 Eh       
DFET-embed. en.    :        0.000000000000 Eh       

---------------
SCF CONVERGENCE
---------------

  Last Energy change         ...   -7.8194e-09  Tolerance :   1.0000e-08
  Last MAX-Density change    ...    6.4978e-06  Tolerance :   1.0000e-07
  Last RMS-Density change    ...    1.3656e-07  Tolerance :   5.0000e-09
  Last Orbital Gradient      ...    1.4797e-06  Tolerance :   1.0000e-05
  Last Orbital Rotation      ...    9.5594e-06  Tolerance :   1.0000e-05

             **** THE GBW FILE WAS UPDATED (orca.gbw) ****
             **** DENSITY FILE WAS UPDATED (orca.scfp.tmp) ****
             **** ENERGY FILE WAS UPDATED (orca.en.tmp) ****
----------------
ORBITAL ENERGIES
----------------

  NO   OCC          E(Eh)            E(eV) 
   0   2.0000     -87.952819     -2393.3179 
   1   2.0000     -87.932108     -2392.7543 
   2   2.0000     -87.889633     -2391.5985 
   3   2.0000      -9.790176      -266.4042 
   4   2.0000      -9.776862      -266.0419 
   5   2.0000      -9.768028      -265.8016 
   6   2.0000      -7.509563      -204.3456 
   7   2.0000      -7.492103      -203.8705 
   8   2.0000      -7.450068      -202.7267 
   9   2.0000      -5.540854      -150.7743 
  10   2.0000      -5.536704      -150.6614 
  11   2.0000      -5.527600      -150.4136 
  12   2.0000      -5.521208      -150.2397 
  13   2.0000      -5.518814      -150.1746 
  14   2.0000      -5.511755      -149.9825 
  15   2.0000      -5.479355      -149.1008 
  16   2.0000      -5.475816      -149.0045 
  17   2.0000      -5.470404      -148.8573 
  18   2.0000      -0.542551       -14.7636 
  19   2.0000      -0.525334       -14.2951 
  20   2.0000      -0.507478       -13.8092 
  21   2.0000      -0.410762       -11.1774 
  22   2.0000      -0.384377       -10.4594 
  23   2.0000      -0.364543        -9.9197 
  24   2.0000      -0.244168        -6.6441 
  25   2.0000      -0.237167        -6.4536 
  26   2.0000      -0.229393        -6.2421 
  27   2.0000      -0.226345        -6.1592 
  28   2.0000      -0.216911        -5.9024 
  29   2.0000      -0.214038        -5.8243 
  30   2.0000      -0.168296        -4.5796 
  31   2.0000      -0.154154        -4.1947 
  32   2.0000      -0.131564        -3.5800 
  33   2.0000      -0.092138        -2.5072 
  34   2.0000      -0.036102        -0.9824 
  35   2.0000      -0.033795        -0.9196 
  36   2.0000      -0.012071        -0.3285 
  37   2.0000      -0.000584        -0.0159 
  38   0.0000       0.049314         1.3419 
  39   0.0000       0.136785         3.7221 
  40   0.0000       0.147905         4.0247 
  41   0.0000       0.154285         4.1983 
  42   0.0000       0.173107         4.7105 
  43   0.0000       0.190668         5.1883 
  44   0.0000       0.200153         5.4464 
  45   0.0000       0.209668         5.7053 
  46   0.0000       0.213990         5.8230 
  47   0.0000       0.220388         5.9971 
  48   0.0000       0.227097         6.1796 
  49   0.0000       0.233709         6.3595 
  50   0.0000       0.245302         6.6750 
  51   0.0000       0.282172         7.6783 
  52   0.0000       0.298235         8.1154 
  53   0.0000       0.302284         8.2256 
  54   0.0000       0.308601         8.3975 
  55   0.0000       0.322622         8.7790 
  56   0.0000       0.335847         9.1389 
  57   0.0000       0.347214         9.4482 
  58   0.0000       0.358180         9.7466 
  59   0.0000       0.371694        10.1143 
  60   0.0000       0.375749        10.2246 
  61   0.0000       0.385081        10.4786 
  62   0.0000       0.403149        10.9702 
  63   0.0000       0.428091        11.6490 
  64   0.0000       0.435368        11.8470 
  65   0.0000       0.443183        12.0596 
  66   0.0000       0.452028        12.3003 
  67   0.0000       0.468748        12.7553 
  68   0.0000       0.471024        12.8172 
  69   0.0000       0.477734        12.9998 
  70   0.0000       0.497750        13.5445 
  71   0.0000       0.504346        13.7240 
  72   0.0000       0.510699        13.8968 
  73   0.0000       0.512789        13.9537 
  74   0.0000       0.519371        14.1328 
  75   0.0000       0.526550        14.3281 
  76   0.0000       0.527327        14.3493 
  77   0.0000       0.546573        14.8730 
  78   0.0000       0.552542        15.0354 
  79   0.0000       0.563270        15.3274 
  80   0.0000       0.566468        15.4144 
  81   0.0000       0.578026        15.7289 
  82   0.0000       0.584625        15.9085 
  83   0.0000       0.587981        15.9998 
  84   0.0000       0.597293        16.2532 
  85   0.0000       0.599175        16.3044 
  86   0.0000       0.605837        16.4857 
  87   0.0000       0.612555        16.6685 
  88   0.0000       0.616666        16.7803 
  89   0.0000       0.636666        17.3246 
  90   0.0000       0.652013        17.7422 
  91   0.0000       0.712709        19.3938 
  92   0.0000       0.729386        19.8476 
  93   0.0000       0.741347        20.1731 
  94   0.0000       0.805880        21.9291 
  95   0.0000       0.832376        22.6501 
  96   0.0000       0.893128        24.3033 
  97   0.0000       0.904896        24.6235 
  98   0.0000       0.917171        24.9575 
  99   0.0000       0.924301        25.1515 
 100   0.0000       0.926448        25.2099 
 101   0.0000       0.963032        26.2054 
 102   0.0000       0.982568        26.7370 
 103   0.0000       0.995278        27.0829 
 104   0.0000       1.034124        28.1400 
 105   0.0000       1.038432        28.2572 
 106   0.0000       1.051818        28.6214 
 107   0.0000       1.058566        28.8051 
 108   0.0000       1.068400        29.0727 
 109   0.0000       1.075576        29.2679 
 110   0.0000       1.081145        29.4195 
 111   0.0000       1.093569        29.7575 
 112   0.0000       1.119160        30.4539 
 113   0.0000       1.126675        30.6584 
 114   0.0000       1.473264        40.0896 
 115   0.0000       1.490859        40.5683 
 116   0.0000       1.505784        40.9745 
 117   0.0000       1.513080        41.1730 
 118   0.0000       1.523886        41.4671 
 119   0.0000       1.533966        41.7413 
 120   0.0000       1.536444        41.8088 
 121   0.0000       1.545300        42.0497 
 122   0.0000       1.546713        42.0882 
 123   0.0000       1.555982        42.3404 
 124   0.0000       1.563534        42.5459 
 125   0.0000       1.587771        43.2054 
 126   0.0000       1.596241        43.4359 
 127   0.0000       1.605675        43.6926 
 128   0.0000       1.613072        43.8939 
 129   0.0000       1.615998        43.9735 
 130   0.0000       1.622345        44.1463 
 131   0.0000       1.625661        44.2365 
 132   0.0000       1.631310        44.3902 
 133   0.0000       1.639499        44.6130 
 134   0.0000       1.646484        44.8031 
 135   0.0000       1.656426        45.0736 
 136   0.0000       1.662344        45.2347 
 137   0.0000       1.672560        45.5127 
 138   0.0000       1.685133        45.8548 
 139   0.0000       1.699278        46.2397 
 140   0.0000       1.704056        46.3697 
 141   0.0000       1.735295        47.2198 
 142   0.0000       1.748203        47.5710 
 143   0.0000       1.748612        47.5821 
 144   0.0000       1.756936        47.8087 
 145   0.0000       1.758898        47.8621 
 146   0.0000       1.770548        48.1791 
 147   0.0000       1.778676        48.4002 
 148   0.0000       1.782016        48.4911 
 149   0.0000       1.791454        48.7479 
 150   0.0000       1.805147        49.1206 
 151   0.0000       1.809469        49.2381 
 152   0.0000       1.822872        49.6029 
 153   0.0000       1.823723        49.6260 
 154   0.0000       1.832709        49.8705 
 155   0.0000       1.835324        49.9417 
 156   0.0000       1.853771        50.4437 
 157   0.0000       1.864030        50.7228 
 158   0.0000       1.892005        51.4841 
 159   0.0000       1.907895        51.9165 
 160   0.0000       1.917739        52.1843 
 161   0.0000       1.931847        52.5682 
 162   0.0000       1.940510        52.8040 
 163   0.0000       1.955561        53.2135 
 164   0.0000       1.973811        53.7101 
 165   0.0000       1.995651        54.3044 
 166   0.0000       2.023578        55.0643 
 167   0.0000       2.029420        55.2233 
 168   0.0000       2.043825        55.6153 
 169   0.0000       2.061680        56.1012 
 170   0.0000       2.085261        56.7428 
 171   0.0000       2.112348        57.4799 
 172   0.0000       2.132122        58.0180 
 173   0.0000       2.190208        59.5986 
 174   0.0000       2.204422        59.9854 
 175   0.0000       2.216057        60.3020 
 176   0.0000       2.218893        60.3791 
 177   0.0000       2.227576        60.6154 
 178   0.0000       2.233284        60.7707 
 179   0.0000       2.247928        61.1692 
 180   0.0000       2.262981        61.5788 
 181   0.0000       2.277900        61.9848 
 182   0.0000       2.354279        64.0632 
 183   0.0000       2.372124        64.5488 
 184   0.0000       2.384432        64.8837 
 185   0.0000       2.389288        65.0158 
 186   0.0000       2.395280        65.1789 
 187   0.0000       2.421130        65.8823 
 188   0.0000       2.604919        70.8834 
 189   0.0000       2.614758        71.1512 
 190   0.0000       2.617685        71.2308 
 191   0.0000       2.627548        71.4992 
 192   0.0000       2.634462        71.6874 
 193   0.0000       2.645690        71.9929 
 194   0.0000       2.671713        72.7010 
 195   0.0000       2.687450        73.1292 
 196   0.0000       2.695828        73.3572 
 197   0.0000       2.715340        73.8882 
 198   0.0000       2.725492        74.1644 
 199   0.0000       2.732359        74.3513 
 200   0.0000       2.765285        75.2472 
 201   0.0000       2.829474        76.9939 
 202   0.0000       2.846484        77.4568 
 203   0.0000       2.851673        77.5980 
 204   0.0000       3.008628        81.8689 
 205   0.0000       3.027446        82.3810 
 206   0.0000       3.043418        82.8156 
 207   0.0000       3.098706        84.3201 
 208   0.0000       3.108689        84.5917 
 209   0.0000       3.111478        84.6676 
 210   0.0000       3.125903        85.0601 
 211   0.0000       3.128866        85.1408 
 212   0.0000       3.182638        86.6040 
 213   0.0000       3.382247        92.0356 
 214   0.0000       3.405489        92.6681 
 215   0.0000       3.426489        93.2395 
 216   0.0000       3.435063        93.4728 
 217   0.0000       3.437738        93.5456 
 218   0.0000       3.441793        93.6559 
 219   0.0000       3.443226        93.6950 
 220   0.0000       3.451480        93.9195 
 221   0.0000       3.463383        94.2434 
 222   0.0000       3.560130        96.8761 
 223   0.0000       3.581148        97.4480 
 224   0.0000       3.590581        97.7047 
 225   0.0000       3.614880        98.3659 
 226   0.0000       3.618679        98.4693 
 227   0.0000       3.623867        98.6104 
 228   0.0000       3.635385        98.9238 
 229   0.0000       3.639370        99.0323 
 230   0.0000       3.647193        99.2452 
 231   0.0000       3.656291        99.4927 
 232   0.0000       3.669830        99.8611 
 233   0.0000       3.676247       100.0358 
 234   0.0000       4.228225       115.0559 
 235   0.0000       4.243306       115.4662 
 236   0.0000       4.247316       115.5753 
 237   0.0000       4.254063       115.7589 
 238   0.0000       4.267598       116.1273 
 239   0.0000       4.287735       116.6752 
 240   0.0000       4.406888       119.9175 
 241   0.0000       4.428036       120.4930 
 242   0.0000       4.472120       121.6926 
 243   0.0000       8.835614       240.4293 
 244   0.0000       8.862336       241.1564 
 245   0.0000       8.879472       241.6227 
 246   0.0000       8.896505       242.0862 
 247   0.0000       8.921142       242.7566 
 248   0.0000       9.112832       247.9728 
 249   0.0000       9.186739       249.9839 
 250   0.0000       9.216931       250.8055 
 251   0.0000       9.228107       251.1096 
 252   0.0000      18.709123       509.1011 
 253   0.0000      18.789209       511.2804 
 254   0.0000      18.988401       516.7006 
 255   0.0000      21.944962       597.1528 
 256   0.0000      21.956829       597.4757 
 257   0.0000      21.993941       598.4855 

                    ********************************
                    * MULLIKEN POPULATION ANALYSIS *
                    ********************************

-----------------------
MULLIKEN ATOMIC CHARGES
-----------------------
   0 C :   -0.231604
   1 S :   -0.126340
   2 H :    0.084191
   3 H :    0.093254
   4 H :    0.083242
   5 C :   -0.267492
   6 S :   -0.350938
   7 H :    0.086862
   8 H :    0.071274
   9 H :    0.097268
  10 C :   -0.285850
  11 S :   -0.491947
  12 H :    0.067539
  13 H :    0.077466
  14 H :    0.093074
Sum of atomic charges:   -1.0000000

--------------------------------
MULLIKEN REDUCED ORBITAL CHARGES
--------------------------------
  0 C s       :     3.205623  s :     3.205623
      pz      :     0.941448  p :     2.972693
      px      :     0.993207
      py      :     1.038038
      dz2     :     0.015468  d :     0.050498
      dxz     :     0.009129
      dyz     :     0.011202
      dx2y2   :     0.003779
      dxy     :     0.010920
      f0      :     0.000239  f :     0.002790
      f+1     :     0.000958
      f-1     :     0.000103
      f+2     :     0.000262
      f-2     :     0.000600
      f+3     :     0.000552
      f-3     :     0.000076
  1 S s       :     5.907236  s :     5.907236
      pz      :     3.186141  p :    10.102818
      px      :     3.447818
      py      :     3.468859
      dz2     :     0.019887  d :     0.107377
      dxz     :     0.034288
      dyz     :     0.023876
      dx2y2   :     0.010103
      dxy     :     0.019223
      f0      :     0.001405  f :     0.008909
      f+1     :     0.002474
      f-1     :     0.000689
      f+2     :     0.001594
      f-2     :     0.001727
      f+3     :     0.000507
      f-3     :     0.000513
  2 H s       :     0.894180  s :     0.894180
      pz      :     0.009661  p :     0.021629
      px      :     0.006977
      py      :     0.004990
  3 H s       :     0.884657  s :     0.884657
      pz      :     0.005771  p :     0.022088
      px      :     0.007494
      py      :     0.008823
  4 H s       :     0.895280  s :     0.895280
      pz      :     0.005095  p :     0.021479
      px      :     0.006393
      py      :     0.009991
  5 C s       :     3.230612  s :     3.230612
      pz      :     1.001296  p :     2.981975
      px      :     0.984724
      py      :     0.995955
      dz2     :     0.007985  d :     0.052126
      dxz     :     0.009174
      dyz     :     0.011654
      dx2y2   :     0.013001
      dxy     :     0.010311
      f0      :     0.000036  f :     0.002779
      f+1     :     0.000404
      f-1     :     0.000196
      f+2     :     0.000345
      f-2     :     0.001352
      f+3     :     0.000277
      f-3     :     0.000169
  6 S s       :     5.876203  s :     5.876203
      pz      :     3.594469  p :    10.375705
      px      :     3.419761
      py      :     3.361475
      dz2     :     0.009675  d :     0.090236
      dxz     :     0.020185
      dyz     :     0.019298
      dx2y2   :     0.014504
      dxy     :     0.026573
      f0      :     0.001062  f :     0.008794
      f+1     :     0.000925
      f-1     :     0.000632
      f+2     :     0.001149
      f-2     :     0.002384
      f+3     :     0.001277
      f-3     :     0.001365
  7 H s       :     0.891690  s :     0.891690
      pz      :     0.007600  p :     0.021448
      px      :     0.008092
      py      :     0.005755
  8 H s       :     0.907554  s :     0.907554
      pz      :     0.008119  p :     0.021172
      px      :     0.006373
      py      :     0.006680
  9 H s       :     0.880952  s :     0.880952
      pz      :     0.005894  p :     0.021780
      px      :     0.006593
      py      :     0.009293
 10 C s       :     3.244688  s :     3.244688
      pz      :     1.013156  p :     2.982700
      px      :     0.976915
      py      :     0.992629
      dz2     :     0.008934  d :     0.055621
      dxz     :     0.009407
      dyz     :     0.013577
      dx2y2   :     0.012403
      dxy     :     0.011300
      f0      :     0.000037  f :     0.002841
      f+1     :     0.000291
      f-1     :     0.000356
      f+2     :     0.000185
      f-2     :     0.001484
      f+3     :     0.000243
      f-3     :     0.000245
 11 S s       :     5.872407  s :     5.872407
      pz      :     3.665208  p :    10.544669
      px      :     3.445026
      py      :     3.434435
      dz2     :     0.006730  d :     0.067204
      dxz     :     0.015452
      dyz     :     0.013500
      dx2y2   :     0.010086
      dxy     :     0.021436
      f0      :     0.000943  f :     0.007667
      f+1     :     0.000714
      f-1     :     0.000585
      f+2     :     0.000887
      f-2     :     0.002154
      f+3     :     0.001167
      f-3     :     0.001217
 12 H s       :     0.911175  s :     0.911175
      pz      :     0.006052  p :     0.021286
      px      :     0.008056
      py      :     0.007178
 13 H s       :     0.901153  s :     0.901153
      pz      :     0.007941  p :     0.021381
      px      :     0.006300
      py      :     0.007141
 14 H s       :     0.885522  s :     0.885522
      pz      :     0.007978  p :     0.021405
      px      :     0.006152
      py      :     0.007275


                     *******************************
                     * LOEWDIN POPULATION ANALYSIS *
                     *******************************

----------------------
LOEWDIN ATOMIC CHARGES
----------------------
   0 C :   -0.571533
   1 S :    0.164158
   2 H :    0.089585
   3 H :    0.086453
   4 H :    0.088018
   5 C :   -0.595347
   6 S :    0.001661
   7 H :    0.084605
   8 H :    0.086485
   9 H :    0.089476
  10 C :   -0.616750
  11 S :   -0.151464
  12 H :    0.082044
  13 H :    0.078421
  14 H :    0.084187

-------------------------------
LOEWDIN REDUCED ORBITAL CHARGES
-------------------------------
  0 C s       :     2.938503  s :     2.938503
      pz      :     1.097655  p :     3.333050
      px      :     1.110744
      py      :     1.124652
      dz2     :     0.071510  d :     0.278422
      dxz     :     0.078507
      dyz     :     0.044281
      dx2y2   :     0.021578
      dxy     :     0.062547
      f0      :     0.002351  f :     0.021558
      f+1     :     0.004662
      f-1     :     0.003376
      f+2     :     0.004090
      f-2     :     0.002467
      f+3     :     0.003576
      f-3     :     0.001035
  1 S s       :     5.562930  s :     5.562930
      pz      :     3.185357  p :    10.045733
      px      :     3.421024
      py      :     3.439352
      dz2     :     0.036569  d :     0.204028
      dxz     :     0.060002
      dyz     :     0.050730
      dx2y2   :     0.019635
      dxy     :     0.037093
      f0      :     0.003948  f :     0.023150
      f+1     :     0.006054
      f-1     :     0.002033
      f+2     :     0.004120
      f-2     :     0.004690
      f+3     :     0.001342
      f-3     :     0.000963
  2 H s       :     0.846945  s :     0.846945
      pz      :     0.028621  p :     0.063470
      px      :     0.019934
      py      :     0.014915
  3 H s       :     0.846214  s :     0.846214
      pz      :     0.015494  p :     0.067333
      px      :     0.023650
      py      :     0.028190
  4 H s       :     0.848130  s :     0.848130
      pz      :     0.014180  p :     0.063852
      px      :     0.018995
      py      :     0.030678
  5 C s       :     2.938886  s :     2.938886
      pz      :     1.108621  p :     3.338801
      px      :     1.113388
      py      :     1.116792
      dz2     :     0.031241  d :     0.295543
      dxz     :     0.072553
      dyz     :     0.070222
      dx2y2   :     0.048453
      dxy     :     0.073074
      f0      :     0.003177  f :     0.022117
      f+1     :     0.003145
      f-1     :     0.003098
      f+2     :     0.001964
      f-2     :     0.003990
      f+3     :     0.003875
      f-3     :     0.002869
  6 S s       :     5.527206  s :     5.527206
      pz      :     3.528962  p :    10.277563
      px      :     3.404456
      py      :     3.344146
      dz2     :     0.018839  d :     0.170500
      dxz     :     0.039427
      dyz     :     0.035931
      dx2y2   :     0.028466
      dxy     :     0.047837
      f0      :     0.002375  f :     0.023070
      f+1     :     0.002400
      f-1     :     0.001975
      f+2     :     0.002960
      f-2     :     0.005964
      f+3     :     0.003708
      f-3     :     0.003688
  7 H s       :     0.852554  s :     0.852554
      pz      :     0.022373  p :     0.062841
      px      :     0.024131
      py      :     0.016337
  8 H s       :     0.851011  s :     0.851011
      pz      :     0.024785  p :     0.062504
      px      :     0.018506
      py      :     0.019213
  9 H s       :     0.847051  s :     0.847051
      pz      :     0.017335  p :     0.063473
      px      :     0.018192
      py      :     0.027946
 10 C s       :     2.938084  s :     2.938084
      pz      :     1.117057  p :     3.349499
      px      :     1.115926
      py      :     1.116516
      dz2     :     0.033095  d :     0.306740
      dxz     :     0.065909
      dyz     :     0.084762
      dx2y2   :     0.043894
      dxy     :     0.079079
      f0      :     0.002998  f :     0.022427
      f+1     :     0.003708
      f-1     :     0.002755
      f+2     :     0.001589
      f-2     :     0.004256
      f+3     :     0.003583
      f-3     :     0.003537
 11 S s       :     5.552717  s :     5.552717
      pz      :     3.625543  p :    10.451868
      px      :     3.425945
      py      :     3.400380
      dz2     :     0.014284  d :     0.127249
      dxz     :     0.029006
      dyz     :     0.024667
      dx2y2   :     0.021795
      dxy     :     0.037498
      f0      :     0.001980  f :     0.019630
      f+1     :     0.002159
      f-1     :     0.001728
      f+2     :     0.002296
      f-2     :     0.004998
      f+3     :     0.003162
      f-3     :     0.003308
 12 H s       :     0.855727  s :     0.855727
      pz      :     0.017666  p :     0.062229
      px      :     0.023990
      py      :     0.020573
 13 H s       :     0.859124  s :     0.859124
      pz      :     0.024337  p :     0.062456
      px      :     0.017208
      py      :     0.020911
 14 H s       :     0.852768  s :     0.852768
      pz      :     0.023510  p :     0.063045
      px      :     0.018118
      py      :     0.021417


                      *****************************
                      * MAYER POPULATION ANALYSIS *
                      *****************************

  NA   - Mulliken gross atomic population
  ZA   - Total nuclear charge
  QA   - Mulliken gross atomic charge
  VA   - Mayer's total valence
  BVA  - Mayer's bonded valence
  FA   - Mayer's free valence

  ATOM       NA         ZA         QA         VA         BVA        FA
  0 C      6.2316     6.0000    -0.2316     3.8850     3.8850     0.0000
  1 S     16.1263    16.0000    -0.1263     2.2340     2.2340    -0.0000
  2 H      0.9158     1.0000     0.0842     0.9695     0.9695    -0.0000
  3 H      0.9067     1.0000     0.0933     1.0041     1.0041    -0.0000
  4 H      0.9168     1.0000     0.0832     0.9792     0.9792    -0.0000
  5 C      6.2675     6.0000    -0.2675     4.0015     4.0015     0.0000
  6 S     16.3509    16.0000    -0.3509     2.0493     2.0493    -0.0000
  7 H      0.9131     1.0000     0.0869     0.9497     0.9497     0.0000
  8 H      0.9287     1.0000     0.0713     0.9588     0.9588     0.0000
  9 H      0.9027     1.0000     0.0973     0.9715     0.9715     0.0000
 10 C      6.2859     6.0000    -0.2859     4.0785     4.0785    -0.0000
 11 S     16.4919    16.0000    -0.4919     1.8640     1.8640    -0.0000
 12 H      0.9325     1.0000     0.0675     0.9502     0.9502    -0.0000
 13 H      0.9225     1.0000     0.0775     0.9363     0.9363    -0.0000
 14 H      0.9069     1.0000     0.0931     0.9528     0.9528    -0.0000

  Mayer bond orders larger than 0.1
B(  0-C ,  1-S ) :   1.0804 B(  0-C ,  2-H ) :   0.9641 B(  0-C ,  3-H ) :   0.9358 
B(  0-C ,  4-H ) :   0.9644 B(  1-S ,  6-S ) :   0.6649 B(  1-S , 11-S ) :   0.4259 
B(  5-C ,  6-S ) :   1.1176 B(  5-C ,  7-H ) :   0.9646 B(  5-C ,  8-H ) :   0.9510 
B(  5-C ,  9-H ) :   0.9653 B(  6-S , 11-S ) :   0.2300 B( 10-C , 11-S ) :   1.1808 
B( 10-C , 12-H ) :   0.9587 B( 10-C , 13-H ) :   0.9627 B( 10-C , 14-H ) :   0.9680 


-------
TIMINGS
-------

Total SCF time: 0 days 0 hours 0 min 15 sec 

Total time                  ....      15.433 sec
Sum of individual times     ....      14.964 sec  ( 97.0%)

Fock matrix formation       ....      12.821 sec  ( 83.1%)
  Split-RI-J                ....       6.757 sec  ( 52.7% of F)
  XC integration            ....       5.531 sec  ( 43.1% of F)
    Basis function eval.    ....       1.227 sec  ( 22.2% of XC)
    Density eval.           ....       1.897 sec  ( 34.3% of XC)
    XC-Functional eval.     ....       0.151 sec  (  2.7% of XC)
    XC-Potential eval.      ....       1.839 sec  ( 33.2% of XC)
Diagonalization             ....       0.193 sec  (  1.3%)
Density matrix formation    ....       0.012 sec  (  0.1%)
Population analysis         ....       0.038 sec  (  0.2%)
Initial guess               ....       0.450 sec  (  2.9%)
Orbital Transformation      ....       0.000 sec  (  0.0%)
Orbital Orthonormalization  ....       0.000 sec  (  0.0%)
DIIS solution               ....       0.132 sec  (  0.9%)
SOSCF solution              ....       0.349 sec  (  2.3%)
Grid generation             ....       0.969 sec  (  6.3%)

-------------------------   --------------------
FINAL SINGLE POINT ENERGY     -1314.341729401065
-------------------------   --------------------

------------------------------------------------------------------------------
                         ORCA SCF GRADIENT CALCULATION
------------------------------------------------------------------------------

Gradient of the Kohn-Sham DFT energy:
Kohn-Sham wavefunction type      ... RKS
Hartree-Fock exchange scaling    ...    0.000
Number of operators              ...    1
Number of atoms                  ...   15
Basis set dimensions             ...  258
Integral neglect threshold       ... 2.5e-11
Integral primitive cutoff        ... 2.5e-12

Nuclear repulsion gradient       ... done
One Electron Gradient            ... done
Pre-screening matrix             ... done
RI-J gradient                    ... done
Exchange-correlation gradient    ... done

------------------
CARTESIAN GRADIENT
------------------

   1   C   :   -0.003601076   -0.002794715   -0.000393505
   2   S   :    0.000618988    0.004012178    0.004513201
   3   H   :   -0.002068244    0.000945833   -0.003521402
   4   H   :    0.003312551    0.003099854    0.000356647
   5   H   :    0.002555975   -0.003640586   -0.001147722
   6   C   :   -0.000238732   -0.001941282   -0.001177074
   7   S   :   -0.009740234   -0.007759090   -0.006657425
   8   H   :    0.002617226   -0.001337438   -0.002549008
   9   H   :    0.001452135    0.003356247    0.003176652
  10   H   :   -0.001748013   -0.002352986    0.001697517
  11   C   :    0.002889919    0.000229074    0.001416636
  12   S   :    0.010355605    0.004316927    0.007676338
  13   H   :   -0.004071599   -0.002343824   -0.002235288
  14   H   :    0.001048947    0.002984707   -0.003560907
  15   H   :   -0.003383447    0.003225101    0.002405339

Difference to translation invariance:
           :   -0.0000000000    0.0000000000   -0.0000000000

Norm of the cartesian gradient     ...    0.0253860893
RMS gradient                       ...    0.0037843348
MAX gradient                       ...    0.0103556046

-------
TIMINGS
-------

Total SCF gradient time            ...        8.078 sec

One electron gradient       ....       0.184 sec  (  2.3%)
Prescreening matrices       ....       0.365 sec  (  4.5%)
RI-J Coulomb gradient       ....       1.544 sec  ( 19.1%)
XC gradient                 ....       5.862 sec  ( 72.6%)

                            ***************************************
                            *     ORCA property calculations      *
                            ***************************************

                                    ---------------------
                                    Active property flags
                                    ---------------------
   (+) Dipole Moment


------------------------------------------------------------------------------
                       ORCA ELECTRIC PROPERTIES CALCULATION
------------------------------------------------------------------------------

Dipole Moment Calculation                       ... on
Quadrupole Moment Calculation                   ... off
Polarizability Calculation                      ... off
GBWName                                         ... orca.gbw
Electron density file                           ... orca.scfp.tmp
The origin for moment calculation is the CENTER OF MASS  = ( 0.580966,  0.714286  0.534303)

-------------
DIPOLE MOMENT
-------------
                                X             Y             Z
Electronic contribution:      1.68607      -0.23252      -3.51030
Nuclear contribution   :     -2.63169      -0.49945       3.44107
                        -----------------------------------------
Total Dipole Moment    :     -0.94561      -0.73197      -0.06924
                        -----------------------------------------
Magnitude (a.u.)       :      1.19781
Magnitude (Debye)      :      3.04460



--------------------
Rotational spectrum 
--------------------
 
Rotational constants in cm-1:     0.136055     0.018224     0.017983 
Rotational constants in MHz :  4078.837817   546.328407   539.116585 

 Dipole components along the rotational axes: 
x,y,z [a.u.] :    -1.010701     0.250446    -0.592046 
x,y,z [Debye]:    -2.568997     0.636582    -1.504862 

 

Timings for individual modules:

Sum of individual times         ...       23.882 sec (=   0.398 min)
GTO integral calculation        ...        0.271 sec (=   0.005 min)   1.1 %
SCF iterations                  ...       15.481 sec (=   0.258 min)  64.8 %
SCF Gradient evaluation         ...        8.130 sec (=   0.135 min)  34.0 %
                             ****ORCA TERMINATED NORMALLY****
TOTAL RUN TIME: 0 days 0 hours 0 minutes 24 seconds 200 msec
